
#(C) 2018 by FIZ Karlsruhe - Leibniz Institute for Information Infrastructure.  All rights reserved.
data_23319-ICSD
_database_code_ICSD 23319
_audit_creation_date 1980-12-31
_audit_update_record 1996-10-14
_chemical_name_systematic 'Sodium tantalum oxide'
_chemical_formula_structural 'Na Ta O3'
_chemical_formula_sum 'Na1 O3 Ta1'
_chemical_name_structure_type Perovskite-GdFeO3
_exptl_crystal_density_diffrn 7.09
_publ_section_title 'Structures of Na Ta O3 by Neutron Powder Diffraction'
loop_
_citation_id
_citation_journal_full
_citation_year
_citation_journal_volume
_citation_page_first
_citation_page_last
_citation_journal_id_ASTM
primary

;
Acta Crystallographica, Section B: Structural Crystallography and Crystal
Chemistry
; 1980 36 1007 1014 ACBCAR
loop_
_publ_author_name
'Ahtee, M.'
'Darlington, C.N.W.'
_cell_length_a 5.5213(2)
_cell_length_b 7.7952(2)
_cell_length_c 5.4842(2)
_cell_angle_alpha 90.
_cell_angle_beta 90.
_cell_angle_gamma 90.
_cell_volume 236.04
_cell_formula_units_Z 4
_symmetry_space_group_name_H-M 'P c m n'
_symmetry_Int_Tables_number 62
_refine_ls_R_factor_all 0.0463
loop_
_symmetry_equiv_pos_site_id
_symmetry_equiv_pos_as_xyz
1 '-x+1/2, y, z+1/2'
2 'x, -y+1/2, z'
3 'x+1/2, y+1/2, -z+1/2'
4 '-x, -y, -z'
5 'x+1/2, -y, -z+1/2'
6 '-x, y+1/2, -z'
7 '-x+1/2, -y+1/2, z+1/2'
8 'x, y, z'
loop_
_atom_type_symbol
_atom_type_oxidation_number
Ta5+ 5
Na1+ 1
O2- -2
loop_
_atom_site_label
_atom_site_type_symbol
_atom_site_symmetry_multiplicity
_atom_site_Wyckoff_symbol
_atom_site_fract_x
_atom_site_fract_y
_atom_site_fract_z
_atom_site_B_iso_or_equiv
_atom_site_occupancy
_atom_site_attached_hydrogens
Ta1 Ta5+ 4 b 0.5 0 0 . 1. 0
Na1 Na1+ 4 c -.0047(11) 0.25 -.0158(8) . 1. 0
O1 O2- 4 c 0.4381(5) 0.25 0.0092(5) . 1. 0
O2 O2- 8 d 0.2149(3) 0.0295(2) 0.2840(3) . 1. 0
loop_
_atom_site_aniso_label
_atom_site_aniso_type_symbol
_atom_site_aniso_B_11
_atom_site_aniso_B_22
_atom_site_aniso_B_33
_atom_site_aniso_B_12
_atom_site_aniso_B_13
_atom_site_aniso_B_23
Ta1 Ta5+ 1.12(10) -.51(16) 0.97(13) -.17(22) -.18(10) 0.12(9)
Na1 Na1+ 1.49(19) 0.66(33) 2.1(3) 0.78(62) 0 0
O1 O2- 1.25(14) 0.32(17) 0.89(15) 0.51(44) 0 0
O2 O2- 0.79(5) 1.29(8) 0.64(5) 0.22(7) 0.55(8) 0.10(6)
#End of TTdata_23319-ICSD