
#(C) 2018 by FIZ Karlsruhe - Leibniz Institute for Information Infrastructure.  All rights reserved.
data_34234-ICSD
_database_code_ICSD 34234
_audit_creation_date 1986-08-04
_audit_update_record 1999-01-19
_chemical_name_systematic 'Lead(IV) oxide - beta'
_chemical_formula_structural 'Pb O2'
_chemical_formula_sum 'O2 Pb1'
_chemical_name_structure_type Rutile-TiO2
_chemical_name_mineral Plattnerite
_exptl_crystal_density_diffrn 9.54
_publ_section_title 'Crystal data for beta-Pb O2'
loop_
_citation_id
_citation_journal_full
_citation_year
_citation_journal_volume
_citation_page_first
_citation_page_last
_citation_journal_id_ASTM
primary 'Journal of Applied Crystallography' 1981 14 141 142 JACGAR
loop_
_publ_author_name
'Harada, H.'
'Sasa, Y.'
'Uda, M.'
_cell_length_a 4.961(2)
_cell_length_b 4.961(2)
_cell_length_c 3.385(2)
_cell_angle_alpha 90.
_cell_angle_beta 90.
_cell_angle_gamma 90.
_cell_volume 83.31
_cell_formula_units_Z 2
_symmetry_space_group_name_H-M 'P 42/m n m'
_symmetry_Int_Tables_number 136
_refine_ls_R_factor_all 0.042
loop_
_symmetry_equiv_pos_site_id
_symmetry_equiv_pos_as_xyz
1 '-y+1/2, x+1/2, -z+1/2'
2 'y+1/2, -x+1/2, -z+1/2'
3 'y, x, -z'
4 '-y, -x, -z'
5 'y+1/2, -x+1/2, z+1/2'
6 '-y+1/2, x+1/2, z+1/2'
7 '-y, -x, z'
8 'y, x, z'
9 'x+1/2, -y+1/2, -z+1/2'
10 '-x+1/2, y+1/2, -z+1/2'
11 'x, y, -z'
12 '-x, -y, -z'
13 '-x+1/2, y+1/2, z+1/2'
14 'x+1/2, -y+1/2, z+1/2'
15 '-x, -y, z'
16 'x, y, z'
loop_
_atom_type_symbol
_atom_type_oxidation_number
Pb4+ 4
O2- -2
loop_
_atom_site_label
_atom_site_type_symbol
_atom_site_symmetry_multiplicity
_atom_site_Wyckoff_symbol
_atom_site_fract_x
_atom_site_fract_y
_atom_site_fract_z
_atom_site_B_iso_or_equiv
_atom_site_occupancy
_atom_site_attached_hydrogens
Pb1 Pb4+ 2 a 0 0 0 0.7 1. 0
O1 O2- 4 f 0.305 0.305 0 0.7 1. 0
#End of TTdata_34234-ICSD